<?xml version="1.0" encoding="UTF-8"?>

<!-- generated on 2026-02-15T22:22:56.870583+01:00 by Eclipse SUMO GUI 1.26.0
<sumoConfiguration xmlns:xsi="http://www.w3.org/2001/XMLSchema-instance" xsi:noNamespaceSchemaLocation="http://sumo.dlr.de/xsd/sumoConfiguration.xsd">

    <input>
        <net-file value="C:\Users\Utente\Documents\VLMLight_Project\VLMLight\rl_tsc\../sim_envs/SouthKorea_Songdo/./env/songdo.net.xml"/>
        <route-files value="C:\Users\Utente\Documents\VLMLight_Project\VLMLight\rl_tsc\../sim_envs/SouthKorea_Songdo/./env/songdo.rou.xml"/>
        <additional-files value="C:\Users\Utente\Documents\VLMLight_Project\VLMLight\rl_tsc\../sim_envs/SouthKorea_Songdo/add/e2.add.xml,C:\Users\Utente\Documents\VLMLight_Project\VLMLight\rl_tsc\../sim_envs/SouthKorea_Songdo/add/tls_programs.add.xml"/>
    </input>

    <output>
        <tripinfo-output value="C:\Users\Utente\Documents\VLMLight_Project\VLMLight\rl_tsc\./tripinfo.out.xml"/>
        <tripinfo-output.write-unfinished value="true"/>
    </output>

    <processing>
        <time-to-teleport value="-1"/>
        <waiting-time-memory value="10000"/>
        <max-depart-delay value="100000"/>
    </processing>

    <report>
        <no-warnings value="true"/>
        <no-step-log value="true"/>
    </report>

    <emissions>
        <device.emissions.probability value="1.0"/>
    </emissions>

    <traci_server>
        <remote-port value="61278"/>
    </traci_server>

    <random_number>
        <random value="true"/>
    </random_number>

    <gui_only>
        <quit-on-end value="true"/>
        <start value="true"/>
    </gui_only>

</sumoConfiguration>
-->

<tripinfos xmlns:xsi="http://www.w3.org/2001/XMLSchema-instance" xsi:noNamespaceSchemaLocation="http://sumo.dlr.de/xsd/tripinfo_file.xsd">
    <tripinfo id="525074961#6__525074961#10__0__background.0" depart="1.00" departLane="525074961#6_2" departPos="5.10" departSpeed="0.00" departDelay="0.97" arrival="19.00" arrivalLane="525074961#10_1" arrivalPos="97.10" arrivalSpeed="26.72" duration="18.00" routeLength="290.72" waitingTime="0.00" waitingCount="0" stopTime="0.00" timeLoss="7.03" rerouteNo="0" devices="tripinfo_525074961#6__525074961#10__0__background.0 emissions_525074961#6__525074961#10__0__background.0" vType="background" speedFactor="1.00" vaporized="">
        <emissions CO_abs="1854.26" CO2_abs="147256.82" HC_abs="12.33" PMx_abs="11.55" NOx_abs="57.13" fuel_abs="47737.86" electricity_abs="0.00"/>
    </tripinfo>
    <tripinfo id="525074961#6__E2__0__background.0" depart="3.00" departLane="525074961#6_5" departPos="5.10" departSpeed="0.00" departDelay="1.46" arrival="22.00" arrivalLane="E2_0" arrivalPos="65.52" arrivalSpeed="14.29" duration="19.00" routeLength="230.33" waitingTime="0.00" waitingCount="0" stopTime="0.00" timeLoss="6.54" rerouteNo="0" devices="tripinfo_525074961#6__E2__0__background.0 emissions_525074961#6__E2__0__background.0" vType="background" speedFactor="1.04" vaporized="">
        <emissions CO_abs="709.45" CO2_abs="88754.87" HC_abs="4.71" PMx_abs="6.86" NOx_abs="30.80" fuel_abs="28772.85" electricity_abs="0.00"/>
    </tripinfo>
    <tripinfo id="525074961#6__525074961#10__0__background.1" depart="6.00" departLane="525074961#6_1" departPos="5.10" departSpeed="0.00" departDelay="1.46" arrival="25.00" arrivalLane="525074961#10_0" arrivalPos="97.10" arrivalSpeed="24.40" duration="19.00" routeLength="290.72" waitingTime="0.00" waitingCount="0" stopTime="0.00" timeLoss="6.97" rerouteNo="0" devices="tripinfo_525074961#6__525074961#10__0__background.1 emissions_525074961#6__525074961#10__0__background.1" vType="background" speedFactor="0.92" vaporized="">
        <emissions CO_abs="1537.45" CO2_abs="132138.48" HC_abs="10.22" PMx_abs="10.31" NOx_abs="50.16" fuel_abs="42836.85" electricity_abs="0.00"/>
    </tripinfo>
    <tripinfo id="525074961#6__525074961#10__0__background.2" depart="10.00" departLane="525074961#6_4" departPos="5.10" departSpeed="0.00" departDelay="0.69" arrival="28.00" arrivalLane="525074961#10_3" arrivalPos="97.10" arrivalSpeed="25.98" duration="18.00" routeLength="290.72" waitingTime="0.00" waitingCount="0" stopTime="0.00" timeLoss="7.15" rerouteNo="0" devices="tripinfo_525074961#6__525074961#10__0__background.2 emissions_525074961#6__525074961#10__0__background.2" vType="background" speedFactor="0.98" vaporized="">
        <emissions CO_abs="1742.63" CO2_abs="140841.43" HC_abs="11.56" PMx_abs="10.27" NOx_abs="54.47" fuel_abs="45658.08" electricity_abs="0.00"/>
    </tripinfo>
    <tripinfo id="525074961#6__525074961#10__0__background.3" depart="12.00" departLane="525074961#6_2" departPos="5.10" departSpeed="0.00" departDelay="0.74" arrival="30.00" arrivalLane="525074961#10_1" arrivalPos="97.10" arrivalSpeed="26.39" duration="18.00" routeLength="290.72" waitingTime="0.00" waitingCount="0" stopTime="0.00" timeLoss="6.98" rerouteNo="0" devices="tripinfo_525074961#6__525074961#10__0__background.3 emissions_525074961#6__525074961#10__0__background.3" vType="background" speedFactor="0.99" vaporized="">
        <emissions CO_abs="1764.97" CO2_abs="142751.41" HC_abs="11.74" PMx_abs="11.34" NOx_abs="55.04" fuel_abs="46277.32" electricity_abs="0.00"/>
    </tripinfo>
    <tripinfo id="525074961#6__525074961#10__0__background.4" depart="16.00" departLane="525074961#6_0" departPos="5.10" departSpeed="0.00" departDelay="0.92" arrival="34.00" arrivalLane="525074961#10_0" arrivalPos="97.10" arrivalSpeed="24.53" duration="18.00" routeLength="290.72" waitingTime="0.00" waitingCount="0" stopTime="0.00" timeLoss="6.30" rerouteNo="0" devices="tripinfo_525074961#6__525074961#10__0__background.4 emissions_525074961#6__525074961#10__0__background.4" vType="background" speedFactor="0.93" vaporized="">
        <emissions CO_abs="1511.47" CO2_abs="128853.16" HC_abs="10.06" PMx_abs="10.11" NOx_abs="48.82" fuel_abs="41771.82" electricity_abs="0.00"/>
    </tripinfo>
    <tripinfo id="525074961#6__429770748#1__0__background.0" depart="4.00" departLane="525074961#6_2" departPos="5.10" departSpeed="0.00" departDelay="0.57" arrival="35.00" arrivalLane="429770748#1_4" arrivalPos="251.22" arrivalSpeed="19.03" duration="31.00" routeLength="461.36" waitingTime="0.00" waitingCount="0" stopTime="0.00" timeLoss="8.71" rerouteNo="0" devices="tripinfo_525074961#6__429770748#1__0__background.0 emissions_525074961#6__429770748#1__0__background.0" vType="background" speedFactor="1.04" vaporized="">
        <emissions CO_abs="1187.00" CO2_abs="128782.44" HC_abs="7.92" PMx_abs="12.01" NOx_abs="46.18" fuel_abs="41749.12" electricity_abs="0.00"/>
    </tripinfo>
    <tripinfo id="525074961#6__E2__0__background.1" depart="16.00" departLane="525074961#6_5" departPos="5.10" departSpeed="0.00" departDelay="0.41" arrival="39.00" arrivalLane="E2_0" arrivalPos="65.52" arrivalSpeed="11.28" duration="23.00" routeLength="230.33" waitingTime="0.00" waitingCount="0" stopTime="0.00" timeLoss="8.82" rerouteNo="0" devices="tripinfo_525074961#6__E2__0__background.1 emissions_525074961#6__E2__0__background.1" vType="background" speedFactor="0.87" vaporized="">
        <emissions CO_abs="565.33" CO2_abs="84086.38" HC_abs="3.74" PMx_abs="5.74" NOx_abs="28.24" fuel_abs="27259.38" electricity_abs="0.00"/>
    </tripinfo>
    <tripinfo id="525074961#6__E2__0__background.2" depart="17.00" departLane="525074961#6_4" departPos="5.10" departSpeed="0.00" departDelay="0.54" arrival="41.00" arrivalLane="E2_0" arrivalPos="65.52" arrivalSpeed="11.28" duration="24.00" routeLength="230.33" waitingTime="0.00" waitingCount="0" stopTime="0.00" timeLoss="9.98" rerouteNo="0" devices="tripinfo_525074961#6__E2__0__background.2 emissions_525074961#6__E2__0__background.2" vType="background" speedFactor="0.90" vaporized="">
        <emissions CO_abs="585.98" CO2_abs="90113.91" HC_abs="3.87" PMx_abs="5.59" NOx_abs="29.89" fuel_abs="29213.45" electricity_abs="0.00"/>
    </tripinfo>
    <tripinfo id="525074961#6__E2__0__background.3" depart="21.00" departLane="525074961#6_2" departPos="5.10" departSpeed="0.00" departDelay="2.16" arrival="43.00" arrivalLane="E2_0" arrivalPos="65.52" arrivalSpeed="12.63" duration="22.00" routeLength="230.33" waitingTime="0.00" waitingCount="0" stopTime="0.00" timeLoss="8.99" rerouteNo="0" devices="tripinfo_525074961#6__E2__0__background.3 emissions_525074961#6__E2__0__background.3" vType="background" speedFactor="0.99" vaporized="">
        <emissions CO_abs="633.22" CO2_abs="91344.74" HC_abs="4.19" PMx_abs="5.77" NOx_abs="30.18" fuel_abs="29612.43" electricity_abs="0.00"/>
    </tripinfo>
    <tripinfo id="525074961#6__429770748#1__0__background.2" depart="14.00" departLane="525074961#6_3" departPos="5.10" departSpeed="0.00" departDelay="0.33" arrival="44.00" arrivalLane="429770748#1_4" arrivalPos="251.22" arrivalSpeed="19.40" duration="30.00" routeLength="461.36" waitingTime="0.00" waitingCount="0" stopTime="0.00" timeLoss="7.21" rerouteNo="0" devices="tripinfo_525074961#6__429770748#1__0__background.2 emissions_525074961#6__429770748#1__0__background.2" vType="background" speedFactor="1.00" vaporized="">
        <emissions CO_abs="1227.77" CO2_abs="132318.72" HC_abs="8.18" PMx_abs="12.38" NOx_abs="47.97" fuel_abs="42895.57" electricity_abs="0.00"/>
    </tripinfo>
    <tripinfo id="525074961#6__429770748#1__0__background.1" depart="13.00" departLane="525074961#6_1" departPos="5.10" departSpeed="0.00" departDelay="0.59" arrival="46.00" arrivalLane="429770748#1_4" arrivalPos="251.22" arrivalSpeed="21.71" duration="33.00" routeLength="461.36" waitingTime="0.00" waitingCount="0" stopTime="0.00" timeLoss="12.20" rerouteNo="0" devices="tripinfo_525074961#6__429770748#1__0__background.1 emissions_525074961#6__429770748#1__0__background.1" vType="background" speedFactor="1.12" vaporized="">
        <emissions CO_abs="1489.36" CO2_abs="149353.02" HC_abs="9.90" PMx_abs="12.09" NOx_abs="54.45" fuel_abs="48417.62" electricity_abs="0.00"/>
    </tripinfo>
    <tripinfo id="989312046#0__989312046#2__0__background.0" depart="4.00" departLane="989312046#0_2" departPos="5.10" departSpeed="0.00" departDelay="0.42" arrival="48.00" arrivalLane="989312046#2_0" arrivalPos="112.60" arrivalSpeed="26.16" duration="44.00" routeLength="379.46" waitingTime="14.00" waitingCount="1" stopTime="0.00" timeLoss="29.81" rerouteNo="0" devices="tripinfo_989312046#0__989312046#2__0__background.0 emissions_989312046#0__989312046#2__0__background.0" vType="background" speedFactor="0.96" vaporized="">
        <emissions CO_abs="2365.94" CO2_abs="234707.12" HC_abs="15.66" PMx_abs="13.90" NOx_abs="88.23" fuel_abs="76087.92" electricity_abs="0.00"/>
    </tripinfo>
    <tripinfo id="989312046#0__989312046#2__0__background.1" depart="11.00" departLane="989312046#0_3" departPos="5.10" departSpeed="0.00" departDelay="0.12" arrival="49.00" arrivalLane="989312046#2_2" arrivalPos="112.60" arrivalSpeed="25.68" duration="38.00" routeLength="379.46" waitingTime="7.00" waitingCount="1" stopTime="0.00" timeLoss="23.05" rerouteNo="0" devices="tripinfo_989312046#0__989312046#2__0__background.1 emissions_989312046#0__989312046#2__0__background.1" vType="background" speedFactor="0.95" vaporized="">
        <emissions CO_abs="2260.96" CO2_abs="218620.67" HC_abs="14.96" PMx_abs="13.49" NOx_abs="81.47" fuel_abs="70872.88" electricity_abs="0.00"/>
    </tripinfo>
    <tripinfo id="989312046#0__989312046#2__0__background.3" depart="18.00" departLane="989312046#0_2" departPos="5.10" departSpeed="0.00" departDelay="0.63" arrival="49.00" arrivalLane="989312046#2_1" arrivalPos="112.60" arrivalSpeed="23.26" duration="31.00" routeLength="379.46" waitingTime="1.00" waitingCount="1" stopTime="0.00" timeLoss="15.42" rerouteNo="0" devices="tripinfo_989312046#0__989312046#2__0__background.3 emissions_989312046#0__989312046#2__0__background.3" vType="background" speedFactor="0.88" vaporized="">
        <emissions CO_abs="2037.38" CO2_abs="197454.11" HC_abs="13.48" PMx_abs="13.14" NOx_abs="72.54" fuel_abs="64011.07" electricity_abs="0.00"/>
    </tripinfo>
    <tripinfo id="989312046#0__E2__0__background.0" depart="13.00" departLane="989312046#0_1" departPos="5.10" departSpeed="0.00" departDelay="0.68" arrival="50.00" arrivalLane="E2_4" arrivalPos="65.52" arrivalSpeed="11.90" duration="37.00" routeLength="341.10" waitingTime="5.00" waitingCount="1" stopTime="0.00" timeLoss="18.26" rerouteNo="0" devices="tripinfo_989312046#0__E2__0__background.0 emissions_989312046#0__E2__0__background.0" vType="background" speedFactor="0.93" vaporized="">
        <emissions CO_abs="1074.82" CO2_abs="148134.56" HC_abs="7.12" PMx_abs="9.77" NOx_abs="51.23" fuel_abs="48022.82" electricity_abs="0.00"/>
    </tripinfo>
    <tripinfo id="989312046#0__989312046#2__0__background.2" depart="16.00" departLane="989312046#0_4" departPos="5.10" departSpeed="0.00" departDelay="0.07" arrival="51.00" arrivalLane="989312046#2_1" arrivalPos="112.60" arrivalSpeed="24.65" duration="35.00" routeLength="379.46" waitingTime="2.00" waitingCount="1" stopTime="0.00" timeLoss="19.60" rerouteNo="0" devices="tripinfo_989312046#0__989312046#2__0__background.2 emissions_989312046#0__989312046#2__0__background.2" vType="background" speedFactor="0.91" vaporized="">
        <emissions CO_abs="2050.08" CO2_abs="204396.51" HC_abs="13.58" PMx_abs="13.50" NOx_abs="75.20" fuel_abs="66261.71" electricity_abs="0.00"/>
    </tripinfo>
    <tripinfo id="989312046#0__E2__0__background.1" depart="20.00" departLane="989312046#0_0" departPos="5.10" departSpeed="0.00" departDelay="0.72" arrival="52.00" arrivalLane="E2_4" arrivalPos="65.52" arrivalSpeed="11.58" duration="32.00" routeLength="341.10" waitingTime="0.00" waitingCount="0" stopTime="0.00" timeLoss="12.68" rerouteNo="0" devices="tripinfo_989312046#0__E2__0__background.1 emissions_989312046#0__E2__0__background.1" vType="background" speedFactor="0.89" vaporized="">
        <emissions CO_abs="1289.38" CO2_abs="148903.80" HC_abs="8.53" PMx_abs="9.41" NOx_abs="52.19" fuel_abs="48271.96" electricity_abs="0.00"/>
    </tripinfo>
    <tripinfo id="315156946#0__989312046#2__0__background.0" depart="6.00" departLane="315156946#0_4" departPos="5.10" departSpeed="0.00" departDelay="0.01" arrival="54.00" arrivalLane="989312046#2_0" arrivalPos="112.60" arrivalSpeed="22.45" duration="48.00" routeLength="368.14" waitingTime="15.00" waitingCount="1" stopTime="0.00" timeLoss="33.30" rerouteNo="0" devices="tripinfo_315156946#0__989312046#2__0__background.0 emissions_315156946#0__989312046#2__0__background.0" vType="background" speedFactor="0.96" vaporized="">
        <emissions CO_abs="2139.26" CO2_abs="227169.97" HC_abs="14.15" PMx_abs="12.81" NOx_abs="84.00" fuel_abs="73644.56" electricity_abs="0.00"/>
    </tripinfo>
    <tripinfo id="989312046#0__429770748#1__0__background.0" depart="7.00" departLane="989312046#0_0" departPos="5.10" departSpeed="0.00" departDelay="0.46" arrival="54.00" arrivalLane="429770748#1_0" arrivalPos="251.22" arrivalSpeed="19.99" duration="47.00" routeLength="484.58" waitingTime="11.00" waitingCount="1" stopTime="0.00" timeLoss="26.22" rerouteNo="0" devices="tripinfo_989312046#0__429770748#1__0__background.0 emissions_989312046#0__429770748#1__0__background.0" vType="background" speedFactor="1.09" vaporized="">
        <emissions CO_abs="1770.20" CO2_abs="202881.80" HC_abs="11.76" PMx_abs="14.06" NOx_abs="73.64" fuel_abs="65770.99" electricity_abs="0.00"/>
    </tripinfo>
    <tripinfo id="315156946#0__525074961#10__0__background.0" depart="26.00" departLane="315156946#0_2" departPos="5.10" departSpeed="0.00" departDelay="0.78" arrival="54.00" arrivalLane="525074961#10_2" arrivalPos="97.10" arrivalSpeed="28.77" duration="28.00" routeLength="434.41" waitingTime="0.00" waitingCount="0" stopTime="0.00" timeLoss="11.92" rerouteNo="0" devices="tripinfo_315156946#0__525074961#10__0__background.0 emissions_315156946#0__525074961#10__0__background.0" vType="background" speedFactor="1.04" vaporized="">
        <emissions CO_abs="3110.17" CO2_abs="239878.80" HC_abs="20.61" PMx_abs="17.04" NOx_abs="94.33" fuel_abs="77764.06" electricity_abs="0.00"/>
    </tripinfo>
    <tripinfo id="989312046#0__429770748#1__0__background.1" depart="7.00" departLane="989312046#0_2" departPos="5.10" departSpeed="0.00" departDelay="0.20" arrival="56.00" arrivalLane="429770748#1_0" arrivalPos="251.22" arrivalSpeed="20.44" duration="49.00" routeLength="484.58" waitingTime="10.00" waitingCount="1" stopTime="0.00" timeLoss="28.40" rerouteNo="0" devices="tripinfo_989312046#0__429770748#1__0__background.1 emissions_989312046#0__429770748#1__0__background.1" vType="background" speedFactor="1.11" vaporized="">
        <emissions CO_abs="1670.57" CO2_abs="200359.99" HC_abs="11.09" PMx_abs="13.55" NOx_abs="72.25" fuel_abs="64953.50" electricity_abs="0.00"/>
    </tripinfo>
    <tripinfo id="315156946#0__525074961#10__0__background.1" depart="32.00" departLane="315156946#0_1" departPos="5.10" departSpeed="0.00" departDelay="0.92" arrival="56.00" arrivalLane="525074961#10_2" arrivalPos="97.10" arrivalSpeed="27.27" duration="24.00" routeLength="434.41" waitingTime="0.00" waitingCount="0" stopTime="0.00" timeLoss="7.65" rerouteNo="0" devices="tripinfo_315156946#0__525074961#10__0__background.1 emissions_315156946#0__525074961#10__0__background.1" vType="background" speedFactor="1.02" vaporized="">
        <emissions CO_abs="2415.88" CO2_abs="183409.67" HC_abs="16.08" PMx_abs="15.42" NOx_abs="72.40" fuel_abs="59457.93" electricity_abs="0.00"/>
    </tripinfo>
    <tripinfo id="315156946#0__E2__0__background.0" depart="1.00" departLane="315156946#0_4" departPos="5.10" departSpeed="0.00" departDelay="0.16" arrival="58.00" arrivalLane="E2_3" arrivalPos="65.52" arrivalSpeed="13.68" duration="57.00" routeLength="402.92" waitingTime="22.00" waitingCount="1" stopTime="0.00" timeLoss="38.03" rerouteNo="0" devices="tripinfo_315156946#0__E2__0__background.0 emissions_315156946#0__E2__0__background.0" vType="background" speedFactor="0.99" vaporized="">
        <emissions CO_abs="1575.04" CO2_abs="205819.07" HC_abs="10.43" PMx_abs="11.47" NOx_abs="74.94" fuel_abs="66723.35" electricity_abs="0.00"/>
    </tripinfo>
    <tripinfo id="315156946#0__989312046#2__0__background.1" depart="8.00" departLane="315156946#0_5" departPos="5.10" departSpeed="0.00" departDelay="0.05" arrival="58.00" arrivalLane="989312046#2_0" arrivalPos="112.60" arrivalSpeed="21.22" duration="50.00" routeLength="368.14" waitingTime="13.00" waitingCount="1" stopTime="0.00" timeLoss="32.81" rerouteNo="0" devices="tripinfo_315156946#0__989312046#2__0__background.1 emissions_315156946#0__989312046#2__0__background.1" vType="background" speedFactor="0.88" vaporized="">
        <emissions CO_abs="1752.25" CO2_abs="210642.10" HC_abs="11.58" PMx_abs="11.40" NOx_abs="76.12" fuel_abs="68286.58" electricity_abs="0.00"/>
    </tripinfo>
    <tripinfo id="315156946#0__E2__0__background.1" depart="5.00" departLane="315156946#0_3" departPos="5.10" departSpeed="0.00" departDelay="0.84" arrival="59.00" arrivalLane="E2_3" arrivalPos="65.52" arrivalSpeed="13.14" duration="54.00" routeLength="402.92" waitingTime="16.00" waitingCount="2" stopTime="0.00" timeLoss="34.59" rerouteNo="0" devices="tripinfo_315156946#0__E2__0__background.1 emissions_315156946#0__E2__0__background.1" vType="background" speedFactor="0.95" vaporized="">
        <emissions CO_abs="1603.11" CO2_abs="210337.47" HC_abs="10.62" PMx_abs="12.11" NOx_abs="75.19" fuel_abs="68187.94" electricity_abs="0.00"/>
    </tripinfo>
    <tripinfo id="315156946#0__E2__0__background.2" depart="6.00" departLane="315156946#0_2" departPos="5.10" departSpeed="0.00" departDelay="0.32" arrival="59.00" arrivalLane="E2_2" arrivalPos="65.52" arrivalSpeed="10.62" duration="53.00" routeLength="402.92" waitingTime="18.00" waitingCount="1" stopTime="0.00" timeLoss="30.80" rerouteNo="0" devices="tripinfo_315156946#0__E2__0__background.2 emissions_315156946#0__E2__0__background.2" vType="background" speedFactor="0.83" vaporized="">
        <emissions CO_abs="1291.31" CO2_abs="182708.97" HC_abs="8.56" PMx_abs="11.09" NOx_abs="65.56" fuel_abs="59231.38" electricity_abs="0.00"/>
    </tripinfo>
    <tripinfo id="315156946#0__E2__0__background.6" depart="17.00" departLane="315156946#0_0" departPos="5.10" departSpeed="0.00" departDelay="0.25" arrival="59.00" arrivalLane="E2_4" arrivalPos="65.52" arrivalSpeed="14.96" duration="42.00" routeLength="402.92" waitingTime="4.00" waitingCount="1" stopTime="0.00" timeLoss="25.15" rerouteNo="0" devices="tripinfo_315156946#0__E2__0__background.6 emissions_315156946#0__E2__0__background.6" vType="background" speedFactor="1.09" vaporized="">
        <emissions CO_abs="1525.58" CO2_abs="182501.70" HC_abs="10.10" PMx_abs="11.72" NOx_abs="65.31" fuel_abs="59163.93" electricity_abs="0.00"/>
    </tripinfo>
    <tripinfo id="315156946#0__E2__0__background.3" depart="8.00" departLane="315156946#0_1" departPos="5.10" departSpeed="0.00" departDelay="0.29" arrival="61.00" arrivalLane="E2_2" arrivalPos="65.52" arrivalSpeed="14.07" duration="53.00" routeLength="402.92" waitingTime="16.00" waitingCount="1" stopTime="0.00" timeLoss="37.59" rerouteNo="0" devices="tripinfo_315156946#0__E2__0__background.3 emissions_315156946#0__E2__0__background.3" vType="background" speedFactor="1.22" vaporized="">
        <emissions CO_abs="1617.63" CO2_abs="207705.31" HC_abs="10.70" PMx_abs="11.50" NOx_abs="74.40" fuel_abs="67334.62" electricity_abs="0.00"/>
    </tripinfo>
    <tripinfo id="315156946#0__E2__0__background.4" depart="11.00" departLane="315156946#0_1" departPos="5.10" departSpeed="0.00" departDelay="0.18" arrival="61.00" arrivalLane="E2_3" arrivalPos="65.52" arrivalSpeed="14.97" duration="50.00" routeLength="402.92" waitingTime="10.00" waitingCount="1" stopTime="0.00" timeLoss="33.25" rerouteNo="0" devices="tripinfo_315156946#0__E2__0__background.4 emissions_315156946#0__E2__0__background.4" vType="background" speedFactor="1.11" vaporized="">
        <emissions CO_abs="1417.61" CO2_abs="195502.85" HC_abs="9.37" PMx_abs="11.29" NOx_abs="68.56" fuel_abs="63378.91" electricity_abs="0.00"/>
    </tripinfo>
    <tripinfo id="E1__525074961#10__0__background.0" depart="15.00" departLane="E1_4" departPos="5.10" departSpeed="0.00" departDelay="0.99" arrival="62.00" arrivalLane="525074961#10_0" arrivalPos="97.10" arrivalSpeed="20.08" duration="47.00" routeLength="383.32" waitingTime="9.00" waitingCount="1" stopTime="0.00" timeLoss="22.71" rerouteNo="0" devices="tripinfo_E1__525074961#10__0__background.0 emissions_E1__525074961#10__0__background.0" vType="background" speedFactor="1.03" vaporized="">
        <emissions CO_abs="1003.78" CO2_abs="159322.66" HC_abs="6.66" PMx_abs="11.17" NOx_abs="55.16" fuel_abs="51649.98" electricity_abs="0.00"/>
    </tripinfo>
    <tripinfo id="E1__989312046#2__0__background.0" depart="24.00" departLane="E1_0" departPos="5.10" departSpeed="0.00" departDelay="0.84" arrival="65.00" arrivalLane="989312046#2_2" arrivalPos="112.60" arrivalSpeed="28.72" duration="41.00" routeLength="480.33" waitingTime="3.00" waitingCount="1" stopTime="0.00" timeLoss="13.86" rerouteNo="0" devices="tripinfo_E1__989312046#2__0__background.0 emissions_E1__989312046#2__0__background.0" vType="background" speedFactor="1.05" vaporized="">
        <emissions CO_abs="2380.92" CO2_abs="220563.03" HC_abs="15.77" PMx_abs="15.08" NOx_abs="82.84" fuel_abs="71502.49" electricity_abs="0.00"/>
    </tripinfo>
    <tripinfo id="989312046#0__989312046#2__0__background.5" depart="29.00" departLane="989312046#0_2" departPos="5.10" departSpeed="0.00" departDelay="0.21" arrival="73.00" arrivalLane="989312046#2_0" arrivalPos="112.60" arrivalSpeed="22.69" duration="44.00" routeLength="379.46" waitingTime="13.00" waitingCount="1" stopTime="0.00" timeLoss="26.74" rerouteNo="0" devices="tripinfo_989312046#0__989312046#2__0__background.5 emissions_989312046#0__989312046#2__0__background.5" vType="background" speedFactor="0.82" vaporized="">
        <emissions CO_abs="1876.78" CO2_abs="208217.48" HC_abs="12.44" PMx_abs="12.83" NOx_abs="76.53" fuel_abs="67500.57" electricity_abs="0.00"/>
    </tripinfo>
    <tripinfo id="989312046#0__989312046#2__0__background.6" depart="37.00" departLane="989312046#0_3" departPos="5.10" departSpeed="0.00" departDelay="0.21" arrival="73.00" arrivalLane="989312046#2_2" arrivalPos="112.60" arrivalSpeed="25.26" duration="36.00" routeLength="379.46" waitingTime="5.00" waitingCount="1" stopTime="0.00" timeLoss="20.32" rerouteNo="0" devices="tripinfo_989312046#0__989312046#2__0__background.6 emissions_989312046#0__989312046#2__0__background.6" vType="background" speedFactor="0.91" vaporized="">
        <emissions CO_abs="2303.80" CO2_abs="219900.18" HC_abs="15.26" PMx_abs="14.27" NOx_abs="81.81" fuel_abs="71287.66" electricity_abs="0.00"/>
    </tripinfo>
    <tripinfo id="E1__429770748#1__0__background.1" depart="4.00" departLane="E1_3" departPos="5.10" departSpeed="0.00" departDelay="0.53" arrival="74.00" arrivalLane="429770748#1_1" arrivalPos="251.22" arrivalSpeed="18.80" duration="70.00" routeLength="619.98" waitingTime="20.00" waitingCount="1" stopTime="0.00" timeLoss="31.40" rerouteNo="0" devices="tripinfo_E1__429770748#1__0__background.1 emissions_E1__429770748#1__0__background.1" vType="background" speedFactor="1.00" vaporized="">
        <emissions CO_abs="1322.10" CO2_abs="206105.62" HC_abs="8.81" PMx_abs="15.49" NOx_abs="73.71" fuel_abs="66816.49" electricity_abs="0.00"/>
    </tripinfo>
    <tripinfo id="989312046#0__E2__0__background.2" depart="21.00" departLane="989312046#0_4" departPos="5.10" departSpeed="0.00" departDelay="0.68" arrival="74.00" arrivalLane="E2_4" arrivalPos="65.52" arrivalSpeed="12.39" duration="53.00" routeLength="341.10" waitingTime="17.00" waitingCount="1" stopTime="0.00" timeLoss="34.08" rerouteNo="0" devices="tripinfo_989312046#0__E2__0__background.2 emissions_989312046#0__E2__0__background.2" vType="background" speedFactor="0.90" vaporized="">
        <emissions CO_abs="1095.47" CO2_abs="172487.07" HC_abs="7.24" PMx_abs="8.92" NOx_abs="60.04" fuel_abs="55917.62" electricity_abs="0.00"/>
    </tripinfo>
    <tripinfo id="989312046#0__989312046#2__0__background.4" depart="27.00" departLane="989312046#0_0" departPos="5.10" departSpeed="0.00" departDelay="0.30" arrival="74.00" arrivalLane="989312046#2_0" arrivalPos="112.60" arrivalSpeed="20.43" duration="47.00" routeLength="379.46" waitingTime="13.00" waitingCount="1" stopTime="0.00" timeLoss="33.72" rerouteNo="0" devices="tripinfo_989312046#0__989312046#2__0__background.4 emissions_989312046#0__989312046#2__0__background.4" vType="background" speedFactor="1.07" vaporized="">
        <emissions CO_abs="1785.90" CO2_abs="210428.10" HC_abs="11.83" PMx_abs="12.58" NOx_abs="76.44" fuel_abs="68217.27" electricity_abs="0.00"/>
    </tripinfo>
    <tripinfo id="989312046#0__989312046#2__0__background.9" depart="48.00" departLane="989312046#0_4" departPos="5.10" departSpeed="0.00" departDelay="0.08" arrival="74.00" arrivalLane="989312046#2_2" arrivalPos="112.60" arrivalSpeed="25.94" duration="26.00" routeLength="379.46" waitingTime="0.00" waitingCount="0" stopTime="0.00" timeLoss="13.11" rerouteNo="0" devices="tripinfo_989312046#0__989312046#2__0__background.9 emissions_989312046#0__989312046#2__0__background.9" vType="background" speedFactor="1.08" vaporized="">
        <emissions CO_abs="2234.51" CO2_abs="189843.19" HC_abs="14.79" PMx_abs="13.05" NOx_abs="72.50" fuel_abs="61543.61" electricity_abs="0.00"/>
    </tripinfo>
    <tripinfo id="E1__429770748#1__0__background.0" depart="2.00" departLane="E1_1" departPos="5.10" departSpeed="0.00" departDelay="0.28" arrival="75.00" arrivalLane="429770748#1_0" arrivalPos="251.22" arrivalSpeed="18.19" duration="73.00" routeLength="619.98" waitingTime="22.00" waitingCount="1" stopTime="0.00" timeLoss="32.63" rerouteNo="0" devices="tripinfo_E1__429770748#1__0__background.0 emissions_E1__429770748#1__0__background.0" vType="background" speedFactor="0.96" vaporized="">
        <emissions CO_abs="1185.33" CO2_abs="200568.60" HC_abs="7.90" PMx_abs="14.70" NOx_abs="71.10" fuel_abs="65021.58" electricity_abs="0.00"/>
    </tripinfo>
    <tripinfo id="989312046#0__989312046#2__0__background.8" depart="45.00" departLane="989312046#0_0" departPos="5.10" departSpeed="0.00" departDelay="0.54" arrival="75.00" arrivalLane="989312046#2_1" arrivalPos="112.60" arrivalSpeed="26.66" duration="30.00" routeLength="379.46" waitingTime="0.00" waitingCount="0" stopTime="0.00" timeLoss="15.84" rerouteNo="0" devices="tripinfo_989312046#0__989312046#2__0__background.8 emissions_989312046#0__989312046#2__0__background.8" vType="background" speedFactor="1.02" vaporized="">
        <emissions CO_abs="2214.02" CO2_abs="198390.33" HC_abs="14.67" PMx_abs="14.01" NOx_abs="74.37" fuel_abs="64314.50" electricity_abs="0.00"/>
    </tripinfo>
    <tripinfo id="989312046#0__E2__0__background.3" depart="27.00" departLane="989312046#0_4" departPos="5.10" departSpeed="0.00" departDelay="0.05" arrival="76.00" arrivalLane="E2_4" arrivalPos="65.52" arrivalSpeed="16.36" duration="49.00" routeLength="341.10" waitingTime="16.00" waitingCount="1" stopTime="0.00" timeLoss="35.36" rerouteNo="0" devices="tripinfo_989312046#0__E2__0__background.3 emissions_989312046#0__E2__0__background.3" vType="background" speedFactor="1.28" vaporized="">
        <emissions CO_abs="1159.66" CO2_abs="173401.53" HC_abs="7.67" PMx_abs="9.70" NOx_abs="60.87" fuel_abs="56214.11" electricity_abs="0.00"/>
    </tripinfo>